                               Psi4 1.4a2.dev78

  ==> Input File <==

--------------------------------------------------------------------------
memory 50 GB
set basis def2-QZVPD
set soscf true
set fail_on_maxiter false
molecule{
	3 1
	La -0.038392 -0.277582 0.000000
	--
	0 1
	O 0.162979 1.183264 0.000000
	H 0.254290 1.773166 0.761699
	H 0.254290 1.773166 -0.761699
}

energy(cbs, corl_wfn='mp2',corl_basis='def2-[TQ]ZVPD', delta_wfn='ccsd(t)', delta_basis='def2-[DT]ZVPD')
--------------------------------------------------------------------------

    Molecular point group: cs
  Charge       = 3
  Multiplicity = 1
  Basis Set: DEF2-QZVPD
    Blend: DEF2-QZVPD
  Basis Set: (DEF2-QZVPD AUX)
    Blend: DEF2-QZVP-JKFIT
  @DF-RHF Final Energy:  -105.52435014043634
    Total Energy =                       -105.5243501404363400
  Basis Set: (DEF2-QZVPD AUX)
    Blend: DEF2-QZVPP-RI
	 Reference Energy          =    -105.5243501404363400 [Eh]
	 Singles Energy            =      -0.0000000000000000 [Eh]
	 Same-Spin Energy          =      -0.1238972686581278 [Eh]
	 Opposite-Spin Energy      =      -0.3711185799303934 [Eh]
	 Correlation Energy        =      -0.4950158485885211 [Eh]
	 Total Energy              =    -106.0193659890248625 [Eh]

	 ================> DF-SCS-MP2 Energies <==================
	-----------------------------------------------------------
	 SCS Same-Spin Scale       =       0.3333333333333333 [-]
	 SCS Opposite-Spin Scale   =       1.2000000000000000 [-]
	 SCS Same-Spin Energy      =      -0.0412990895527093 [Eh]
	 SCS Opposite-Spin Energy  =      -0.4453422959164721 [Eh]
	 SCS Correlation Energy    =      -0.4866413854691813 [Eh]
	 SCS Total Energy          =    -106.0109915259055242 [Eh]
	-----------------------------------------------------------

    Molecular point group: cs
  Multiplicity = 1
  Basis Set: DEF2-SVPD
    Blend: DEF2-SVPD
  @RHF Final Energy:  -105.34928623084885
    Total Energy =                       -105.3492862308488469
      * MP2 total energy                      = -105.667043995138442
      * CCSD total energy                     = -105.675872700967261
      * CCSD(T) total energy                  = -105.682963858729110
    Molecular point group: cs

    Geometry (in Angstrom), charge = 3, multiplicity = 1:

       Center              X                  Y                   Z               Mass
    ------------   -----------------  -----------------  -----------------  -----------------
         LA          -0.024285822205    -0.175250044471     0.000000000000   138.906356300000
         O            0.177085177795     1.285595955529     0.000000000000    15.994914619570
         H            0.268396177795     1.875497955529     0.761699000000     1.007825032230
         H            0.268396177795     1.875497955529    -0.761699000000     1.007825032230

  Charge       = 3
  Multiplicity = 1
  Basis Set: DEF2-TZVPD
    Blend: DEF2-TZVPD

    Orbital Energies [Eh]
    ---------------------

    Doubly Occupied:

       1Ap   -21.474070     2Ap    -2.738265     3Ap    -2.296221
       4Ap    -1.887407     1App   -1.837562     5Ap    -1.796404
       2App   -1.601549     6Ap    -1.475822     7Ap    -1.247928

  @RHF Final Energy:  -105.48961132110608

   => Energetics <=

    Nuclear Repulsion Energy =             45.9497258719424124
    One-Electron Energy =                -230.1682197710292144
    Two-Electron Energy =                  78.7288825779807269
    Total Energy =                       -105.4896113211060822

  Dipole Moment: [D]
     X:     0.9215      Y:     6.3491      Z:     0.0000     Total:     6.4156

      * MP2 total energy                      = -105.899384710354056
      * CCSD total energy                     = -105.910102341605310
      * CCSD(T) total energy                  = -105.920752891065675
*** Psi4 exiting successfully. Buy a developer a beer!
