                               Psi4 1.4a2.dev78

  ==> Input File <==

--------------------------------------------------------------------------
memory 50 GB
set basis def2-QZVPD
set soscf true
set fail_on_maxiter false
molecule{
	3 1
	La -0.038392 -0.277582 0.000000
	--
	0 1
	O 0.490708 3.560782 0.000000
	H 0.582019 4.150684 0.761699
	H 0.582019 4.150684 -0.761699
}

energy(cbs, corl_wfn='mp2',corl_basis='def2-[TQ]ZVPD', delta_wfn='ccsd(t)', delta_basis='def2-[DT]ZVPD')
--------------------------------------------------------------------------

    Molecular point group: cs
  Charge       = 3
  Multiplicity = 1
  Basis Set: DEF2-QZVPD
    Blend: DEF2-QZVPD
  Basis Set: (DEF2-QZVPD AUX)
    Blend: DEF2-QZVP-JKFIT
  @DF-RHF Final Energy:  -105.98828521414342
    Total Energy =                       -105.9882852141434171
  Basis Set: (DEF2-QZVPD AUX)
    Blend: DEF2-QZVPP-RI
	 Reference Energy          =    -105.9882852141434171 [Eh]
	 Singles Energy            =      -0.0000000000000000 [Eh]
	 Same-Spin Energy          =      -0.1101321853253165 [Eh]
	 Opposite-Spin Energy      =      -0.3581711956995375 [Eh]
	 Correlation Energy        =      -0.4683033810248540 [Eh]
	 Total Energy              =    -106.4565885951682702 [Eh]

	 ================> DF-SCS-MP2 Energies <==================
	-----------------------------------------------------------
	 SCS Same-Spin Scale       =       0.3333333333333333 [-]
	 SCS Opposite-Spin Scale   =       1.2000000000000000 [-]
	 SCS Same-Spin Energy      =      -0.0367107284417722 [Eh]
	 SCS Opposite-Spin Energy  =      -0.4298054348394451 [Eh]
	 SCS Correlation Energy    =      -0.4665161632812172 [Eh]
	 SCS Total Energy          =    -106.4548013774246300 [Eh]
	-----------------------------------------------------------

    Molecular point group: cs
  Multiplicity = 1
  Basis Set: DEF2-SVPD
    Blend: DEF2-SVPD
  @RHF Final Energy:  -105.89526300798825
    Total Energy =                       -105.8952630079882624
      * MP2 total energy                      = -106.188775397892783
      * CCSD total energy                     = -106.202775443105921
      * CCSD(T) total energy                  = -106.209304795260266
    Molecular point group: cs

    Geometry (in Angstrom), charge = 3, multiplicity = 1:

       Center              X                  Y                   Z               Mass
    ------------   -----------------  -----------------  -----------------  -----------------
         LA          -0.061901805978    -0.448136113468     0.000000000000   138.906356300000
         O            0.467198194022     3.390227886532     0.000000000000    15.994914619570
         H            0.558509194022     3.980129886532     0.761699000000     1.007825032230
         H            0.558509194022     3.980129886532    -0.761699000000     1.007825032230

  Charge       = 3
  Multiplicity = 1
  Basis Set: DEF2-TZVPD
    Blend: DEF2-TZVPD

    Orbital Energies [Eh]
    ---------------------

    Doubly Occupied:

       1Ap   -20.969593     2Ap    -2.638060     1App   -1.833688
       3Ap    -1.833532     4Ap    -1.831122     5Ap    -1.746361
       2App   -1.108926     6Ap    -0.998107     7Ap    -0.912720

  @RHF Final Energy:  -105.98220996805826

   => Energetics <=

    Nuclear Repulsion Energy =             23.6816067585394912
    One-Electron Energy =                -191.5834132973126884
    Two-Electron Energy =                  61.9195965707149441
    Total Energy =                       -105.9822099680582568

  Dipole Moment: [D]
     X:    -0.3705      Y:    -2.9262      Z:     0.0000     Total:     2.9495

      * MP2 total energy                      = -106.375404325993145
      * CCSD total energy                     = -106.389459341589102
      * CCSD(T) total energy                  = -106.399570694883096
*** Psi4 exiting successfully. Buy a developer a beer!
