                               Psi4 1.4a2.dev78

  ==> Input File <==

--------------------------------------------------------------------------
memory 50 GB
set basis def2-QZVPD
set soscf true
set fail_on_maxiter false
molecule{
	3 1
	La -0.038392 -0.277582 0.000000
	--
	0 1
	O 0.558985 4.056099 0.000000
	H 0.650296 4.646001 0.761699
	H 0.650296 4.646001 -0.761699
}

energy(cbs, corl_wfn='mp2',corl_basis='def2-[TQ]ZVPD', delta_wfn='ccsd(t)', delta_basis='def2-[DT]ZVPD')
--------------------------------------------------------------------------

    Molecular point group: cs
  Charge       = 3
  Multiplicity = 1
  Basis Set: DEF2-QZVPD
    Blend: DEF2-QZVPD
  Basis Set: (DEF2-QZVPD AUX)
    Blend: DEF2-QZVP-JKFIT
  @DF-RHF Final Energy:  -105.97359218733288
    Total Energy =                       -105.9735921873328834
  Basis Set: (DEF2-QZVPD AUX)
    Blend: DEF2-QZVPP-RI
	 Reference Energy          =    -105.9735921873328834 [Eh]
	 Singles Energy            =      -0.0000000000000000 [Eh]
	 Same-Spin Energy          =      -0.1097158043055793 [Eh]
	 Opposite-Spin Energy      =      -0.3575746398697645 [Eh]
	 Correlation Energy        =      -0.4672904441753438 [Eh]
	 Total Energy              =    -106.4408826315082308 [Eh]

	 ================> DF-SCS-MP2 Energies <==================
	-----------------------------------------------------------
	 SCS Same-Spin Scale       =       0.3333333333333333 [-]
	 SCS Opposite-Spin Scale   =       1.2000000000000000 [-]
	 SCS Same-Spin Energy      =      -0.0365719347685264 [Eh]
	 SCS Opposite-Spin Energy  =      -0.4290895678437174 [Eh]
	 SCS Correlation Energy    =      -0.4656615026122438 [Eh]
	 SCS Total Energy          =    -106.4392536899451329 [Eh]
	-----------------------------------------------------------

    Molecular point group: cs
  Multiplicity = 1
  Basis Set: DEF2-SVPD
    Blend: DEF2-SVPD
  @RHF Final Energy:  -105.88052318950858
    Total Energy =                       -105.8805231895085797
      * MP2 total energy                      = -106.172979606126560
      * CCSD total energy                     = -106.187143593689214
      * CCSD(T) total energy                  = -106.193509234960402
    Molecular point group: cs

    Geometry (in Angstrom), charge = 3, multiplicity = 1:

       Center              X                  Y                   Z               Mass
    ------------   -----------------  -----------------  -----------------  -----------------
         LA          -0.069738483611    -0.504987463926     0.000000000000   138.906356300000
         O            0.527638516389     3.828693536074     0.000000000000    15.994914619570
         H            0.618949516389     4.418595536074     0.761699000000     1.007825032230
         H            0.618949516389     4.418595536074    -0.761699000000     1.007825032230

  Charge       = 3
  Multiplicity = 1
  Basis Set: DEF2-TZVPD
    Blend: DEF2-TZVPD

    Orbital Energies [Eh]
    ---------------------

    Doubly Occupied:

       1Ap   -20.920323     2Ap    -2.646176     1App   -1.841325
       3Ap    -1.841239     4Ap    -1.839882     5Ap    -1.699065
       2App   -1.061842     6Ap    -0.947781     7Ap    -0.864571

  @RHF Final Energy:  -105.96753869882296

   => Energetics <=

    Nuclear Repulsion Energy =             22.0560681268714625
    One-Electron Energy =                -188.7228055407600777
    Two-Electron Energy =                  60.6991987150656556
    Total Energy =                       -105.9675386988229775

  Dipole Moment: [D]
     X:    -0.5407      Y:    -4.1586      Z:     0.0000     Total:     4.1936

      * MP2 total energy                      = -106.359604095751564
      * CCSD total energy                     = -106.373931476939546
      * CCSD(T) total energy                  = -106.383842863408802
*** Psi4 exiting successfully. Buy a developer a beer!
