                               Psi4 1.4a2.dev78

  ==> Input File <==

--------------------------------------------------------------------------
memory 50 GB
set basis def2-QZVPD
set soscf true
set fail_on_maxiter false
molecule{
	3 1
	La -0.038392 -0.277582 0.000000
	--
	0 1
	O 0.381465 2.768276 0.000000
	H 0.472776 3.358178 0.761699
	H 0.472776 3.358178 -0.761699
}

energy(cbs, corl_wfn='mp2',corl_basis='def2-[TQ]ZVPD', delta_wfn='ccsd(t)', delta_basis='def2-[DT]ZVPD')
--------------------------------------------------------------------------

    Molecular point group: cs
  Charge       = 3
  Multiplicity = 1
  Basis Set: DEF2-QZVPD
    Blend: DEF2-QZVPD
  Basis Set: (DEF2-QZVPD AUX)
    Blend: DEF2-QZVP-JKFIT
  @DF-RHF Final Energy:  -106.02890826214608
    Total Energy =                       -106.0289082621460750
  Basis Set: (DEF2-QZVPD AUX)
    Blend: DEF2-QZVPP-RI
	 Reference Energy          =    -106.0289082621460750 [Eh]
	 Singles Energy            =      -0.0000000000000000 [Eh]
	 Same-Spin Energy          =      -0.1113939751357502 [Eh]
	 Opposite-Spin Energy      =      -0.3597501988087310 [Eh]
	 Correlation Energy        =      -0.4711441739444812 [Eh]
	 Total Energy              =    -106.5000524360905558 [Eh]

	 ================> DF-SCS-MP2 Energies <==================
	-----------------------------------------------------------
	 SCS Same-Spin Scale       =       0.3333333333333333 [-]
	 SCS Opposite-Spin Scale   =       1.2000000000000000 [-]
	 SCS Same-Spin Energy      =      -0.0371313250452501 [Eh]
	 SCS Opposite-Spin Energy  =      -0.4317002385704772 [Eh]
	 SCS Correlation Energy    =      -0.4688315636157273 [Eh]
	 SCS Total Energy          =    -106.4977398257617978 [Eh]
	-----------------------------------------------------------

    Molecular point group: cs
  Multiplicity = 1
  Basis Set: DEF2-SVPD
    Blend: DEF2-SVPD
  @RHF Final Energy:  -105.93638127526965
    Total Energy =                       -105.9363812752696532
      * MP2 total energy                      = -106.234316065039394
      * CCSD total energy                     = -106.248024230519079
      * CCSD(T) total energy                  = -106.254903221868972
    Molecular point group: cs

    Geometry (in Angstrom), charge = 3, multiplicity = 1:

       Center              X                  Y                   Z               Mass
    ------------   -----------------  -----------------  -----------------  -----------------
         LA          -0.049363144720    -0.357174090469     0.000000000000   138.906356300000
         O            0.370493855280     2.688683909531     0.000000000000    15.994914619570
         H            0.461804855280     3.278585909531     0.761699000000     1.007825032230
         H            0.461804855280     3.278585909531    -0.761699000000     1.007825032230

  Charge       = 3
  Multiplicity = 1
  Basis Set: DEF2-TZVPD
    Blend: DEF2-TZVPD

    Orbital Energies [Eh]
    ---------------------

    Doubly Occupied:

       1Ap   -21.077142     2Ap    -2.614419     3Ap    -1.852148
       1App   -1.811903     4Ap    -1.811431     5Ap    -1.804752
       2App   -1.211987     6Ap    -1.113897     7Ap    -1.018075

  @RHF Final Energy:  -106.02255203131683

   => Energetics <=

    Nuclear Repulsion Energy =             27.3468765241279037
    One-Electron Energy =                -198.1073463322895236
    Two-Electron Energy =                  64.7379177768447818
    Total Energy =                       -106.0225520313168346

  Dipole Moment: [D]
     X:    -0.0627      Y:    -0.7051      Z:     0.0000     Total:     0.7079

      * MP2 total energy                      = -106.418750353014389
      * CCSD total energy                     = -106.432265596159382
      * CCSD(T) total energy                  = -106.442775523486588
*** Psi4 exiting successfully. Buy a developer a beer!
