                               Psi4 1.4a2.dev78

  ==> Input File <==

--------------------------------------------------------------------------
memory 50 GB
set basis def2-QZVPD
set soscf true
set fail_on_maxiter false
molecule{
	3 1
	La -0.038392 -0.277582 0.000000
	--
	0 1
	O 0.244911 1.777644 0.000000
	H 0.336222 2.367546 0.761699
	H 0.336222 2.367546 -0.761699
}

energy(cbs, corl_wfn='mp2',corl_basis='def2-[TQ]ZVPD', delta_wfn='ccsd(t)', delta_basis='def2-[DT]ZVPD')
--------------------------------------------------------------------------

    Molecular point group: cs
  Charge       = 3
  Multiplicity = 1
  Basis Set: DEF2-QZVPD
    Blend: DEF2-QZVPD
  Basis Set: (DEF2-QZVPD AUX)
    Blend: DEF2-QZVP-JKFIT
  @DF-RHF Final Energy:  -106.04598841202355
    Total Energy =                       -106.0459884120235472
  Basis Set: (DEF2-QZVPD AUX)
    Blend: DEF2-QZVPP-RI
	 Reference Energy          =    -106.0459884120235472 [Eh]
	 Singles Energy            =      -0.0000000000000000 [Eh]
	 Same-Spin Energy          =      -0.1166586831751578 [Eh]
	 Opposite-Spin Energy      =      -0.3638742713017550 [Eh]
	 Correlation Energy        =      -0.4805329544769129 [Eh]
	 Total Energy              =    -106.5265213665004609 [Eh]

	 ================> DF-SCS-MP2 Energies <==================
	-----------------------------------------------------------
	 SCS Same-Spin Scale       =       0.3333333333333333 [-]
	 SCS Opposite-Spin Scale   =       1.2000000000000000 [-]
	 SCS Same-Spin Energy      =      -0.0388862277250526 [Eh]
	 SCS Opposite-Spin Energy  =      -0.4366491255621061 [Eh]
	 SCS Correlation Energy    =      -0.4755353532871587 [Eh]
	 SCS Total Energy          =    -106.5215237653107039 [Eh]
	-----------------------------------------------------------

    Molecular point group: cs
  Multiplicity = 1
  Basis Set: DEF2-SVPD
    Blend: DEF2-SVPD
  @RHF Final Energy:  -105.94232785341271
    Total Energy =                       -105.9423278534127064
      * MP2 total energy                      = -106.252248435488241
      * CCSD total energy                     = -106.264020974195475
      * CCSD(T) total energy                  = -106.271226999253344
    Molecular point group: cs

    Geometry (in Angstrom), charge = 3, multiplicity = 1:

       Center              X                  Y                   Z               Mass
    ------------   -----------------  -----------------  -----------------  -----------------
         LA          -0.033689789454    -0.243471619109     0.000000000000   138.906356300000
         O            0.249613210546     1.811754380891     0.000000000000    15.994914619570
         H            0.340924210546     2.401656380891     0.761699000000     1.007825032230
         H            0.340924210546     2.401656380891    -0.761699000000     1.007825032230

  Charge       = 3
  Multiplicity = 1
  Basis Set: DEF2-TZVPD
    Blend: DEF2-TZVPD

    Orbital Energies [Eh]
    ---------------------

    Doubly Occupied:

       1Ap   -21.266365     2Ap    -2.562587     3Ap    -2.087800
       4Ap    -1.763466     1App   -1.762616     5Ap    -1.760499
       2App   -1.419557     6Ap    -1.317300     7Ap    -1.233837

  @RHF Final Energy:  -106.03433811336797

   => Energetics <=

    Nuclear Repulsion Energy =             35.7331649499338866
    One-Electron Energy =                -213.1869515749135644
    Two-Electron Energy =                  71.4194485116117050
    Total Energy =                       -106.0343381133679657

  Dipole Moment: [D]
     X:     0.4090      Y:     2.6727      Z:     0.0000     Total:     2.7038

      * MP2 total energy                      = -106.436880137639406
      * CCSD total energy                     = -106.448468503011313
      * CCSD(T) total energy                  = -106.459294671251797
*** Psi4 exiting successfully. Buy a developer a beer!
