                               Psi4 1.4a2.dev78

  ==> Input File <==

--------------------------------------------------------------------------
memory 50 GB
set basis def2-QZVPD
set soscf true
set fail_on_maxiter false
molecule{
	3 1
	La -0.038392 -0.277582 0.000000
	--
	0 1
	O 0.395120 2.867340 0.000000
	H 0.486432 3.457242 0.761699
	H 0.486432 3.457242 -0.761699
}

energy(cbs, corl_wfn='mp2',corl_basis='def2-[TQ]ZVPD', delta_wfn='ccsd(t)', delta_basis='def2-[DT]ZVPD')
--------------------------------------------------------------------------

    Molecular point group: cs
  Charge       = 3
  Multiplicity = 1
  Basis Set: DEF2-QZVPD
    Blend: DEF2-QZVPD
  Basis Set: (DEF2-QZVPD AUX)
    Blend: DEF2-QZVP-JKFIT
  @DF-RHF Final Energy:  -106.02253308438225
    Total Energy =                       -106.0225330843822462
  Basis Set: (DEF2-QZVPD AUX)
    Blend: DEF2-QZVPP-RI
	 Reference Energy          =    -106.0225330843822462 [Eh]
	 Singles Energy            =      -0.0000000000000000 [Eh]
	 Same-Spin Energy          =      -0.1111776375642082 [Eh]
	 Opposite-Spin Energy      =      -0.3595244196062668 [Eh]
	 Correlation Energy        =      -0.4707020571704750 [Eh]
	 Total Energy              =    -106.4932351415527165 [Eh]

	 ================> DF-SCS-MP2 Energies <==================
	-----------------------------------------------------------
	 SCS Same-Spin Scale       =       0.3333333333333333 [-]
	 SCS Opposite-Spin Scale   =       1.2000000000000000 [-]
	 SCS Same-Spin Energy      =      -0.0370592125214027 [Eh]
	 SCS Opposite-Spin Energy  =      -0.4314293035275201 [Eh]
	 SCS Correlation Energy    =      -0.4684885160489229 [Eh]
	 SCS Total Energy          =    -106.4910216004311678 [Eh]
	-----------------------------------------------------------

    Molecular point group: cs
  Multiplicity = 1
  Basis Set: DEF2-SVPD
    Blend: DEF2-SVPD
  @RHF Final Energy:  -105.92997513535664
    Total Energy =                       -105.9299751353566421
      * MP2 total energy                      = -106.227156149546659
      * CCSD total energy                     = -106.240901436935189
      * CCSD(T) total energy                  = -106.247742164021247
    Molecular point group: cs

    Geometry (in Angstrom), charge = 3, multiplicity = 1:

       Center              X                  Y                   Z               Mass
    ------------   -----------------  -----------------  -----------------  -----------------
         LA          -0.050930447181    -0.368544429427     0.000000000000   138.906356300000
         O            0.382581552819     2.776377570573     0.000000000000    15.994914619570
         H            0.473893552819     3.366279570573     0.761699000000     1.007825032230
         H            0.473893552819     3.366279570573    -0.761699000000     1.007825032230

  Charge       = 3
  Multiplicity = 1
  Basis Set: DEF2-TZVPD
    Blend: DEF2-TZVPD

    Orbital Energies [Eh]
    ---------------------

    Doubly Occupied:

       1Ap   -21.061708     2Ap    -2.618258     3Ap    -1.836865
       1App   -1.815404     4Ap    -1.814996     5Ap    -1.808615
       2App   -1.196964     6Ap    -1.096459     7Ap    -1.002719

  @RHF Final Energy:  -106.01627247105698

   => Energetics <=

    Nuclear Repulsion Energy =             26.7907410830988510
    One-Electron Energy =                -197.1100534318630082
    Two-Electron Energy =                  64.3030398777071781
    Total Energy =                       -106.0162724710569790

  Dipole Moment: [D]
     X:    -0.1030      Y:    -0.9952      Z:     0.0000     Total:     1.0005

      * MP2 total energy                      = -106.412065811904228
      * CCSD total energy                     = -106.425652109086002
      * CCSD(T) total energy                  = -106.436122811430664
*** Psi4 exiting successfully. Buy a developer a beer!
