                               Psi4 1.4a2.dev78

  ==> Input File <==

--------------------------------------------------------------------------
memory 50 GB
set basis def2-QZVPD
set soscf true
set fail_on_maxiter false
molecule{
	3 1
	La -0.038392 -0.277582 0.000000
	--
	0 1
	O 0.203945 1.480454 0.000000
	H 0.295256 2.070356 0.761699
	H 0.295256 2.070356 -0.761699
}

energy(cbs, corl_wfn='mp2',corl_basis='def2-[TQ]ZVPD', delta_wfn='ccsd(t)', delta_basis='def2-[DT]ZVPD')
--------------------------------------------------------------------------

    Molecular point group: cs
  Charge       = 3
  Multiplicity = 1
  Basis Set: DEF2-QZVPD
    Blend: DEF2-QZVPD
  Basis Set: (DEF2-QZVPD AUX)
    Blend: DEF2-QZVP-JKFIT
  @DF-RHF Final Energy:  -105.92213382101426
    Total Energy =                       -105.9221338210142562
  Basis Set: (DEF2-QZVPD AUX)
    Blend: DEF2-QZVPP-RI
	 Reference Energy          =    -105.9221338210142562 [Eh]
	 Singles Energy            =      -0.0000000000000000 [Eh]
	 Same-Spin Energy          =      -0.1204901376811211 [Eh]
	 Opposite-Spin Energy      =      -0.3676668179912939 [Eh]
	 Correlation Energy        =      -0.4881569556724150 [Eh]
	 Total Energy              =    -106.4102907766866650 [Eh]

	 ================> DF-SCS-MP2 Energies <==================
	-----------------------------------------------------------
	 SCS Same-Spin Scale       =       0.3333333333333333 [-]
	 SCS Opposite-Spin Scale   =       1.2000000000000000 [-]
	 SCS Same-Spin Energy      =      -0.0401633792270404 [Eh]
	 SCS Opposite-Spin Energy  =      -0.4412001815895527 [Eh]
	 SCS Correlation Energy    =      -0.4813635608165930 [Eh]
	 SCS Total Energy          =    -106.4034973818308458 [Eh]
	-----------------------------------------------------------

    Molecular point group: cs
  Multiplicity = 1
  Basis Set: DEF2-SVPD
    Blend: DEF2-SVPD
  @RHF Final Energy:  -105.79446387757439
    Total Energy =                       -105.7944638775743869
      * MP2 total energy                      = -106.110505653704664
      * CCSD total energy                     = -106.120286483471475
      * CCSD(T) total energy                  = -106.127607383361649
    Molecular point group: cs

    Geometry (in Angstrom), charge = 3, multiplicity = 1:

       Center              X                  Y                   Z               Mass
    ------------   -----------------  -----------------  -----------------  -----------------
         LA          -0.028987805830    -0.209360831790     0.000000000000   138.906356300000
         O            0.213349194170     1.548675168210     0.000000000000    15.994914619570
         H            0.304660194170     2.138577168210     0.761699000000     1.007825032230
         H            0.304660194170     2.138577168210    -0.761699000000     1.007825032230

  Charge       = 3
  Multiplicity = 1
  Basis Set: DEF2-TZVPD
    Blend: DEF2-TZVPD

    Orbital Energies [Eh]
    ---------------------

    Doubly Occupied:

       1Ap   -21.349135     2Ap    -2.571257     3Ap    -2.212643
       4Ap    -1.791131     1App   -1.754516     5Ap    -1.748443
       2App   -1.519988     6Ap    -1.345908     7Ap    -1.325484

  @RHF Final Energy:  -105.90288572908159

   => Energetics <=

    Nuclear Repulsion Energy =             40.0106724958831279
    One-Electron Energy =                -220.5901050941472477
    Two-Electron Energy =                  74.6765468691825447
    Total Energy =                       -105.9028857290815893

  Dipole Moment: [D]
     X:     0.6320      Y:     4.2686      Z:     0.0000     Total:     4.3152

      * MP2 total energy                      = -106.309795799994731
      * CCSD total energy                     = -106.320134761270950
      * CCSD(T) total energy                  = -106.331034412834597
*** Psi4 exiting successfully. Buy a developer a beer!
