                               Psi4 1.4a2.dev78

  ==> Input File <==

--------------------------------------------------------------------------
memory 50 GB
set basis def2-QZVPD
set soscf true
set fail_on_maxiter false
molecule{
	3 1
	La -0.038392 -0.277582 0.000000
	--
	0 1
	O 0.231256 1.678580 0.000000
	H 0.322567 2.268482 0.761699
	H 0.322567 2.268482 -0.761699
}

energy(cbs, corl_wfn='mp2',corl_basis='def2-[TQ]ZVPD', delta_wfn='ccsd(t)', delta_basis='def2-[DT]ZVPD')
--------------------------------------------------------------------------

    Molecular point group: cs
  Charge       = 3
  Multiplicity = 1
  Basis Set: DEF2-QZVPD
    Blend: DEF2-QZVPD
  Basis Set: (DEF2-QZVPD AUX)
    Blend: DEF2-QZVP-JKFIT
  @DF-RHF Final Energy:  -106.02158704403766
    Total Energy =                       -106.0215870440376591
  Basis Set: (DEF2-QZVPD AUX)
    Blend: DEF2-QZVPP-RI
	 Reference Energy          =    -106.0215870440376591 [Eh]
	 Singles Energy            =      -0.0000000000000000 [Eh]
	 Same-Spin Energy          =      -0.1178313110831075 [Eh]
	 Opposite-Spin Energy      =      -0.3649943330721080 [Eh]
	 Correlation Energy        =      -0.4828256441552156 [Eh]
	 Total Energy              =    -106.5044126881928719 [Eh]

	 ================> DF-SCS-MP2 Energies <==================
	-----------------------------------------------------------
	 SCS Same-Spin Scale       =       0.3333333333333333 [-]
	 SCS Opposite-Spin Scale   =       1.2000000000000000 [-]
	 SCS Same-Spin Energy      =      -0.0392771036943692 [Eh]
	 SCS Opposite-Spin Energy  =      -0.4379931996865297 [Eh]
	 SCS Correlation Energy    =      -0.4772703033808988 [Eh]
	 SCS Total Energy          =    -106.4988573474185642 [Eh]
	-----------------------------------------------------------

    Molecular point group: cs
  Multiplicity = 1
  Basis Set: DEF2-SVPD
    Blend: DEF2-SVPD
  @RHF Final Energy:  -105.91223485154379
    Total Energy =                       -105.9122348515437864
      * MP2 total energy                      = -106.224143440092007
      * CCSD total energy                     = -106.235333205873914
      * CCSD(T) total energy                  = -106.242584780264437
    Molecular point group: cs

    Geometry (in Angstrom), charge = 3, multiplicity = 1:

       Center              X                  Y                   Z               Mass
    ------------   -----------------  -----------------  -----------------  -----------------
         LA          -0.032122499838    -0.232101280151     0.000000000000   138.906356300000
         O            0.237525500162     1.724060719849     0.000000000000    15.994914619570
         H            0.328836500162     2.313962719849     0.761699000000     1.007825032230
         H            0.328836500162     2.313962719849    -0.761699000000     1.007825032230

  Charge       = 3
  Multiplicity = 1
  Basis Set: DEF2-TZVPD
    Blend: DEF2-TZVPD

    Orbital Energies [Eh]
    ---------------------

    Doubly Occupied:

       1Ap   -21.291133     2Ap    -2.559591     3Ap    -2.126693
       4Ap    -1.766699     1App   -1.757505     5Ap    -1.754845
       2App   -1.450484     6Ap    -1.328387     7Ap    -1.267292

  @RHF Final Energy:  -106.00809335574243

   => Energetics <=

    Nuclear Repulsion Energy =             37.0199193143186704
    One-Electron Energy =                -215.4507678840668063
    Two-Electron Energy =                  72.4227552140057185
    Total Energy =                       -106.0080933557424316

  Dipole Moment: [D]
     X:     0.4754      Y:     3.1471      Z:     0.0000     Total:     3.1828

      * MP2 total energy                      = -106.411986844924670
      * CCSD total energy                     = -106.423146936706985
      * CCSD(T) total energy                  = -106.434012050361275
*** Psi4 exiting successfully. Buy a developer a beer!
