                               Psi4 1.4a2.dev78

  ==> Input File <==

--------------------------------------------------------------------------
memory 50 GB
set basis def2-QZVPD
set soscf true
set fail_on_maxiter false
molecule{
	3 1
	La -0.038392 -0.277582 0.000000
	--
	0 1
	O 0.217600 1.579517 0.000000
	H 0.308911 2.169419 0.761699
	H 0.308911 2.169419 -0.761699
}

energy(cbs, corl_wfn='mp2',corl_basis='def2-[TQ]ZVPD', delta_wfn='ccsd(t)', delta_basis='def2-[DT]ZVPD')
--------------------------------------------------------------------------

    Molecular point group: cs
  Charge       = 3
  Multiplicity = 1
  Basis Set: DEF2-QZVPD
    Blend: DEF2-QZVPD
  Basis Set: (DEF2-QZVPD AUX)
    Blend: DEF2-QZVP-JKFIT
  @DF-RHF Final Energy:  -105.98223544581782
    Total Energy =                       -105.9822354458178211
  Basis Set: (DEF2-QZVPD AUX)
    Blend: DEF2-QZVPP-RI
	 Reference Energy          =    -105.9822354458178211 [Eh]
	 Singles Energy            =      -0.0000000000000000 [Eh]
	 Same-Spin Energy          =      -0.1191318638529597 [Eh]
	 Opposite-Spin Energy      =      -0.3662883600171921 [Eh]
	 Correlation Energy        =      -0.4854202238701517 [Eh]
	 Total Energy              =    -106.4676556696879715 [Eh]

	 ================> DF-SCS-MP2 Energies <==================
	-----------------------------------------------------------
	 SCS Same-Spin Scale       =       0.3333333333333333 [-]
	 SCS Opposite-Spin Scale   =       1.2000000000000000 [-]
	 SCS Same-Spin Energy      =      -0.0397106212843199 [Eh]
	 SCS Opposite-Spin Energy  =      -0.4395460320206305 [Eh]
	 SCS Correlation Energy    =      -0.4792566533049504 [Eh]
	 SCS Total Energy          =    -106.4614920991227649 [Eh]
	-----------------------------------------------------------

    Molecular point group: cs
  Multiplicity = 1
  Basis Set: DEF2-SVPD
    Blend: DEF2-SVPD
  @RHF Final Energy:  -105.86501271299377
    Total Energy =                       -105.8650127129937744
      * MP2 total energy                      = -106.179022333248227
      * CCSD total energy                     = -106.189532207294590
      * CCSD(T) total energy                  = -106.196826185507589
    Molecular point group: cs

    Geometry (in Angstrom), charge = 3, multiplicity = 1:

       Center              X                  Y                   Z               Mass
    ------------   -----------------  -----------------  -----------------  -----------------
         LA          -0.030555095445    -0.220731055971     0.000000000000   138.906356300000
         O            0.225436904555     1.636367944029     0.000000000000    15.994914619570
         H            0.316747904555     2.226269944029     0.761699000000     1.007825032230
         H            0.316747904555     2.226269944029    -0.761699000000     1.007825032230

  Charge       = 3
  Multiplicity = 1
  Basis Set: DEF2-TZVPD
    Blend: DEF2-TZVPD

    Orbital Energies [Eh]
    ---------------------

    Doubly Occupied:

       1Ap   -21.318401     2Ap    -2.560939     3Ap    -2.169059
       4Ap    -1.775368     1App   -1.754061     5Ap    -1.750348
       2App   -1.484198     6Ap    -1.331833     7Ap    -1.304560

  @RHF Final Energy:  -105.96628035561471

   => Energetics <=

    Nuclear Repulsion Energy =             38.4385520795370326
    One-Electron Energy =                -217.9121309553876529
    Two-Electron Energy =                  73.5072985202359064
    Total Energy =                       -105.9662803556147139

  Dipole Moment: [D]
     X:     0.5493      Y:     3.6764      Z:     0.0000     Total:     3.7172

      * MP2 total energy                      = -106.371667923094748
      * CCSD total energy                     = -106.382389343332378
      * CCSD(T) total energy                  = -106.393282984004983
*** Psi4 exiting successfully. Buy a developer a beer!
