                               Psi4 1.4a2.dev78

  ==> Input File <==

--------------------------------------------------------------------------
memory 50 GB
set basis def2-QZVPD
set soscf true
set fail_on_maxiter false
molecule{
	3 1
	La -0.038392 -0.277582 0.000000
	--
	0 1
	O 0.190290 1.381391 0.000000
	H 0.281601 1.971293 0.761699
	H 0.281601 1.971293 -0.761699
}

energy(cbs, corl_wfn='mp2',corl_basis='def2-[TQ]ZVPD', delta_wfn='ccsd(t)', delta_basis='def2-[DT]ZVPD')
--------------------------------------------------------------------------

    Molecular point group: cs
  Charge       = 3
  Multiplicity = 1
  Basis Set: DEF2-QZVPD
    Blend: DEF2-QZVPD
  Basis Set: (DEF2-QZVPD AUX)
    Blend: DEF2-QZVP-JKFIT
  @DF-RHF Final Energy:  -105.83354295007848
    Total Energy =                       -105.8335429500784812
  Basis Set: (DEF2-QZVPD AUX)
    Blend: DEF2-QZVPP-RI
	 Reference Energy          =    -105.8335429500784812 [Eh]
	 Singles Energy            =      -0.0000000000000000 [Eh]
	 Same-Spin Energy          =      -0.1217941671588030 [Eh]
	 Opposite-Spin Energy      =      -0.3689889949560775 [Eh]
	 Correlation Energy        =      -0.4907831621148805 [Eh]
	 Total Energy              =    -106.3243261121933614 [Eh]

	 ================> DF-SCS-MP2 Energies <==================
	-----------------------------------------------------------
	 SCS Same-Spin Scale       =       0.3333333333333333 [-]
	 SCS Opposite-Spin Scale   =       1.2000000000000000 [-]
	 SCS Same-Spin Energy      =      -0.0405980557196010 [Eh]
	 SCS Opposite-Spin Energy  =      -0.4427867939472929 [Eh]
	 SCS Correlation Energy    =      -0.4833848496668939 [Eh]
	 SCS Total Energy          =    -106.3169277997453719 [Eh]
	-----------------------------------------------------------

    Molecular point group: cs
  Multiplicity = 1
  Basis Set: DEF2-SVPD
    Blend: DEF2-SVPD
  @RHF Final Energy:  -105.69266446999794
    Total Energy =                       -105.6926644699979363
      * MP2 total energy                      = -106.010312404673044
      * CCSD total energy                     = -106.019434845335567
      * CCSD(T) total energy                  = -106.026745314191743
    Molecular point group: cs

    Geometry (in Angstrom), charge = 3, multiplicity = 1:

       Center              X                  Y                   Z               Mass
    ------------   -----------------  -----------------  -----------------  -----------------
         LA          -0.027420516214    -0.197990607610     0.000000000000   138.906356300000
         O            0.201261483786     1.460982392390     0.000000000000    15.994914619570
         H            0.292572483786     2.050884392390     0.761699000000     1.007825032230
         H            0.292572483786     2.050884392390    -0.761699000000     1.007825032230

  Charge       = 3
  Multiplicity = 1
  Basis Set: DEF2-TZVPD
    Blend: DEF2-TZVPD

    Orbital Energies [Eh]
    ---------------------

    Doubly Occupied:

       1Ap   -21.384577     2Ap    -2.598516     3Ap    -2.252275
       4Ap    -1.815106     1App   -1.763460     5Ap    -1.751838
       2App   -1.555199     6Ap    -1.390381     7Ap    -1.308581

  @RHF Final Energy:  -105.80997997474184

   => Energetics <=

    Nuclear Repulsion Energy =             41.7629250286988949
    One-Electron Energy =                -223.5059458087700364
    Two-Electron Energy =                  75.9330408053292985
    Total Energy =                       -105.8099799747418359

  Dipole Moment: [D]
     X:     0.7236      Y:     4.9257      Z:     0.0000     Total:     4.9786

      * MP2 total energy                      = -106.218246203441396
      * CCSD total energy                     = -106.228369158010665
      * CCSD(T) total energy                  = -106.239236376942813
*** Psi4 exiting successfully. Buy a developer a beer!
