                               Psi4 1.4a2.dev78

  ==> Input File <==

--------------------------------------------------------------------------
memory 50 GB
set basis def2-QZVPD
set soscf true
set fail_on_maxiter false
molecule{
	3 1
	La -0.038392 -0.277582 0.000000
	--
	0 1
	O 0.272222 1.975770 0.000000
	H 0.363533 2.565672 0.761699
	H 0.363533 2.565672 -0.761699
}

energy(cbs, corl_wfn='mp2',corl_basis='def2-[TQ]ZVPD', delta_wfn='ccsd(t)', delta_basis='def2-[DT]ZVPD')
--------------------------------------------------------------------------

    Molecular point group: cs
  Charge       = 3
  Multiplicity = 1
  Basis Set: DEF2-QZVPD
    Blend: DEF2-QZVPD
  Basis Set: (DEF2-QZVPD AUX)
    Blend: DEF2-QZVP-JKFIT
  @DF-RHF Final Energy:  -106.06615532737661
    Total Energy =                       -106.0661553273766060
  Basis Set: (DEF2-QZVPD AUX)
    Blend: DEF2-QZVPP-RI
	 Reference Energy          =    -106.0661553273766060 [Eh]
	 Singles Energy            =      -0.0000000000000000 [Eh]
	 Same-Spin Energy          =      -0.1147927532644644 [Eh]
	 Opposite-Spin Energy      =      -0.3622667060612961 [Eh]
	 Correlation Energy        =      -0.4770594593257605 [Eh]
	 Total Energy              =    -106.5432147867023644 [Eh]

	 ================> DF-SCS-MP2 Energies <==================
	-----------------------------------------------------------
	 SCS Same-Spin Scale       =       0.3333333333333333 [-]
	 SCS Opposite-Spin Scale   =       1.2000000000000000 [-]
	 SCS Same-Spin Energy      =      -0.0382642510881548 [Eh]
	 SCS Opposite-Spin Energy  =      -0.4347200472735553 [Eh]
	 SCS Correlation Energy    =      -0.4729842983617101 [Eh]
	 SCS Total Energy          =    -106.5391396257383150 [Eh]
	-----------------------------------------------------------

    Molecular point group: cs
  Multiplicity = 1
  Basis Set: DEF2-SVPD
    Blend: DEF2-SVPD
  @RHF Final Energy:  -105.96914105435025
    Total Energy =                       -105.9691410543502457
      * MP2 total energy                      = -106.275639595955582
      * CCSD total energy                     = -106.288268156332450
      * CCSD(T) total energy                  = -106.295392849402077
    Molecular point group: cs

    Geometry (in Angstrom), charge = 3, multiplicity = 1:

       Center              X                  Y                   Z               Mass
    ------------   -----------------  -----------------  -----------------  -----------------
         LA          -0.036824483463    -0.266212067470     0.000000000000   138.906356300000
         O            0.273789516537     1.987139932530     0.000000000000    15.994914619570
         H            0.365100516537     2.577041932530     0.761699000000     1.007825032230
         H            0.365100516537     2.577041932530    -0.761699000000     1.007825032230

  Charge       = 3
  Multiplicity = 1
  Basis Set: DEF2-TZVPD
    Blend: DEF2-TZVPD

    Orbital Energies [Eh]
    ---------------------

    Doubly Occupied:

       1Ap   -21.221845     2Ap    -2.573306     3Ap    -2.021659
       1App   -1.774155     4Ap    -1.772628     5Ap    -1.766787
       2App   -1.365530     6Ap    -1.281083     7Ap    -1.176510

  @RHF Final Energy:  -106.05691690133580

   => Energetics <=

    Nuclear Repulsion Energy =             33.4875825437817696
    One-Electron Energy =                -209.1819915500569209
    Two-Electron Energy =                  69.6374921049393549
    Total Energy =                       -106.0569169013357964

  Dipole Moment: [D]
     X:     0.2939      Y:     1.8500      Z:     0.0000     Total:     1.8732

      * MP2 total energy                      = -106.457321016750186
      * CCSD total energy                     = -106.469623936245242
      * CCSD(T) total energy                  = -106.480368654931695
*** Psi4 exiting successfully. Buy a developer a beer!
