                               Psi4 1.4a2.dev78

  ==> Input File <==

--------------------------------------------------------------------------
memory 50 GB
set basis def2-QZVPD
set soscf true
set fail_on_maxiter false
molecule{
	3 1
	La -0.038392 -0.277582 0.000000
	--
	0 1
	O 0.326844 2.372023 0.000000
	H 0.418155 2.961925 0.761699
	H 0.418155 2.961925 -0.761699
}

energy(cbs, corl_wfn='mp2',corl_basis='def2-[TQ]ZVPD', delta_wfn='ccsd(t)', delta_basis='def2-[DT]ZVPD')
--------------------------------------------------------------------------

    Molecular point group: cs
  Charge       = 3
  Multiplicity = 1
  Basis Set: DEF2-QZVPD
    Blend: DEF2-QZVPD
  Basis Set: (DEF2-QZVPD AUX)
    Blend: DEF2-QZVP-JKFIT
  @DF-RHF Final Energy:  -106.05544493962128
    Total Energy =                       -106.0554449396212817
  Basis Set: (DEF2-QZVPD AUX)
    Blend: DEF2-QZVPP-RI
	 Reference Energy          =    -106.0554449396212817 [Eh]
	 Singles Energy            =      -0.0000000000000000 [Eh]
	 Same-Spin Energy          =      -0.1125859919234558 [Eh]
	 Opposite-Spin Energy      =      -0.3607302678016039 [Eh]
	 Correlation Energy        =      -0.4733162597250598 [Eh]
	 Total Energy              =    -106.5287611993463486 [Eh]

	 ================> DF-SCS-MP2 Energies <==================
	-----------------------------------------------------------
	 SCS Same-Spin Scale       =       0.3333333333333333 [-]
	 SCS Opposite-Spin Scale   =       1.2000000000000000 [-]
	 SCS Same-Spin Energy      =      -0.0375286639744853 [Eh]
	 SCS Opposite-Spin Energy  =      -0.4328763213619247 [Eh]
	 SCS Correlation Energy    =      -0.4704049853364100 [Eh]
	 SCS Total Energy          =    -106.5258499249576971 [Eh]
	-----------------------------------------------------------

    Molecular point group: cs
  Multiplicity = 1
  Basis Set: DEF2-SVPD
    Blend: DEF2-SVPD
  @RHF Final Energy:  -105.96245634900025
    Total Energy =                       -105.9624563490002487
      * MP2 total energy                      = -106.263968695721914
      * CCSD total energy                     = -106.277417326543684
      * CCSD(T) total energy                  = -106.284421195998220
    Molecular point group: cs

    Geometry (in Angstrom), charge = 3, multiplicity = 1:

       Center              X                  Y                   Z               Mass
    ------------   -----------------  -----------------  -----------------  -----------------
         LA          -0.043093871480    -0.311693078970     0.000000000000   138.906356300000
         O            0.322142128520     2.337911921030     0.000000000000    15.994914619570
         H            0.413453128520     2.927813921030     0.761699000000     1.007825032230
         H            0.413453128520     2.927813921030    -0.761699000000     1.007825032230

  Charge       = 3
  Multiplicity = 1
  Basis Set: DEF2-TZVPD
    Blend: DEF2-TZVPD

    Orbital Energies [Eh]
    ---------------------

    Doubly Occupied:

       1Ap   -21.144473     2Ap    -2.596107     3Ap    -1.923943
       1App   -1.795294     4Ap    -1.794441     5Ap    -1.786010
       2App   -1.279804     6Ap    -1.193068     7Ap    -1.087549

  @RHF Final Energy:  -106.04832115909031

   => Energetics <=

    Nuclear Repulsion Energy =             29.9730311584768110
    One-Electron Energy =                -202.8413253730462031
    Two-Electron Energy =                  66.8199730554790960
    Total Energy =                       -106.0483211590903068

  Dipole Moment: [D]
     X:     0.1046      Y:     0.4951      Z:     0.0000     Total:     0.5061

      * MP2 total energy                      = -106.446195978695201
      * CCSD total energy                     = -106.459326865154054
      * CCSD(T) total energy                  = -106.469951582171205
*** Psi4 exiting successfully. Buy a developer a beer!
