                               Psi4 1.4a2.dev78

  ==> Input File <==

--------------------------------------------------------------------------
memory 50 GB
set basis def2-QZVPD
set soscf true
set fail_on_maxiter false
molecule{
	3 1
	La -0.038392 -0.277582 0.000000
	--
	0 1
	O 0.408776 2.966403 0.000000
	H 0.500087 3.556305 0.761699
	H 0.500087 3.556305 -0.761699
}

energy(cbs, corl_wfn='mp2',corl_basis='def2-[TQ]ZVPD', delta_wfn='ccsd(t)', delta_basis='def2-[DT]ZVPD')
--------------------------------------------------------------------------

    Molecular point group: cs
  Charge       = 3
  Multiplicity = 1
  Basis Set: DEF2-QZVPD
    Blend: DEF2-QZVPD
  Basis Set: (DEF2-QZVPD AUX)
    Blend: DEF2-QZVP-JKFIT
  @DF-RHF Final Energy:  -106.01649562650762
    Total Energy =                       -106.0164956265076199
  Basis Set: (DEF2-QZVPD AUX)
    Blend: DEF2-QZVPP-RI
	 Reference Energy          =    -106.0164956265076199 [Eh]
	 Singles Energy            =      -0.0000000000000000 [Eh]
	 Same-Spin Energy          =      -0.1109833811094222 [Eh]
	 Opposite-Spin Energy      =      -0.3593054953821472 [Eh]
	 Correlation Energy        =      -0.4702888764915694 [Eh]
	 Total Energy              =    -106.4867845029991855 [Eh]

	 ================> DF-SCS-MP2 Energies <==================
	-----------------------------------------------------------
	 SCS Same-Spin Scale       =       0.3333333333333333 [-]
	 SCS Opposite-Spin Scale   =       1.2000000000000000 [-]
	 SCS Same-Spin Energy      =      -0.0369944603698074 [Eh]
	 SCS Opposite-Spin Energy  =      -0.4311665944585766 [Eh]
	 SCS Correlation Energy    =      -0.4681610548283840 [Eh]
	 SCS Total Energy          =    -106.4846566813360056 [Eh]
	-----------------------------------------------------------

    Molecular point group: cs
  Multiplicity = 1
  Basis Set: DEF2-SVPD
    Blend: DEF2-SVPD
  @RHF Final Energy:  -105.92388111811758
    Total Energy =                       -105.9238811181175777
      * MP2 total energy                      = -106.220362043004840
      * CCSD total energy                     = -106.234142154439979
      * CCSD(T) total energy                  = -106.240941559901444
    Molecular point group: cs

    Geometry (in Angstrom), charge = 3, multiplicity = 1:

       Center              X                  Y                   Z               Mass
    ------------   -----------------  -----------------  -----------------  -----------------
         LA          -0.052497838729    -0.379914653608     0.000000000000   138.906356300000
         O            0.394670161271     2.864070346392     0.000000000000    15.994914619570
         H            0.485981161271     3.453972346392     0.761699000000     1.007825032230
         H            0.485981161271     3.453972346392    -0.761699000000     1.007825032230

  Charge       = 3
  Multiplicity = 1
  Basis Set: DEF2-TZVPD
    Blend: DEF2-TZVPD

    Orbital Energies [Eh]
    ---------------------

    Doubly Occupied:

       1Ap   -21.046836     2Ap    -2.621822     3Ap    -1.823240
       1App   -1.818665     4Ap    -1.818312     5Ap    -1.811332
       2App   -1.182604     6Ap    -1.079948     7Ap    -0.988043

  @RHF Final Energy:  -106.01030446741093

   => Energetics <=

    Nuclear Repulsion Energy =             26.2675993556002396
    One-Electron Energy =                -196.1742065982633676
    Two-Electron Energy =                  63.8963027752522095
    Total Energy =                       -106.0103044674109327

  Dipole Moment: [D]
     X:    -0.1428      Y:    -1.2822      Z:     0.0000     Total:     1.2901

      * MP2 total energy                      = -106.405693224764107
      * CCSD total energy                     = -106.419347734511277
      * CCSD(T) total energy                  = -106.429774195374407
*** Psi4 exiting successfully. Buy a developer a beer!
