                               Psi4 1.4a2.dev78

  ==> Input File <==

--------------------------------------------------------------------------
memory 50 GB
set basis def2-QZVPD
set soscf true
set fail_on_maxiter false
molecule{
	3 1
	La -0.038392 -0.277582 0.000000
	--
	0 1
	O 0.313188 2.272960 0.000000
	H 0.404499 2.862862 0.761699
	H 0.404499 2.862862 -0.761699
}

energy(cbs, corl_wfn='mp2',corl_basis='def2-[TQ]ZVPD', delta_wfn='ccsd(t)', delta_basis='def2-[DT]ZVPD')
--------------------------------------------------------------------------

    Molecular point group: cs
  Charge       = 3
  Multiplicity = 1
  Basis Set: DEF2-QZVPD
    Blend: DEF2-QZVPD
  Basis Set: (DEF2-QZVPD AUX)
    Blend: DEF2-QZVP-JKFIT
  @DF-RHF Final Energy:  -106.06108480060638
    Total Energy =                       -106.0610848006063804
  Basis Set: (DEF2-QZVPD AUX)
    Blend: DEF2-QZVPP-RI
	 Reference Energy          =    -106.0610848006063804 [Eh]
	 Singles Energy            =      -0.0000000000000000 [Eh]
	 Same-Spin Energy          =      -0.1130051454990388 [Eh]
	 Opposite-Spin Energy      =      -0.3610133423804607 [Eh]
	 Correlation Energy        =      -0.4740184878794995 [Eh]
	 Total Energy              =    -106.5351032884858853 [Eh]

	 ================> DF-SCS-MP2 Energies <==================
	-----------------------------------------------------------
	 SCS Same-Spin Scale       =       0.3333333333333333 [-]
	 SCS Opposite-Spin Scale   =       1.2000000000000000 [-]
	 SCS Same-Spin Energy      =      -0.0376683818330129 [Eh]
	 SCS Opposite-Spin Energy  =      -0.4332160108565529 [Eh]
	 SCS Correlation Energy    =      -0.4708843926895658 [Eh]
	 SCS Total Energy          =    -106.5319691932959500 [Eh]
	-----------------------------------------------------------

    Molecular point group: cs
  Multiplicity = 1
  Basis Set: DEF2-SVPD
    Blend: DEF2-SVPD
  @RHF Final Energy:  -105.96766222199889
    Total Energy =                       -105.9676622219988928
      * MP2 total energy                      = -106.270247037009341
      * CCSD total energy                     = -106.283568558942392
      * CCSD(T) total energy                  = -106.290600079535693
    Molecular point group: cs

    Geometry (in Angstrom), charge = 3, multiplicity = 1:

       Center              X                  Y                   Z               Mass
    ------------   -----------------  -----------------  -----------------  -----------------
         LA          -0.041526467087    -0.300322854789     0.000000000000   138.906356300000
         O            0.310053532913     2.250219145211     0.000000000000    15.994914619570
         H            0.401364532913     2.840121145211     0.761699000000     1.007825032230
         H            0.401364532913     2.840121145211    -0.761699000000     1.007825032230

  Charge       = 3
  Multiplicity = 1
  Basis Set: DEF2-TZVPD
    Blend: DEF2-TZVPD

    Orbital Energies [Eh]
    ---------------------

    Doubly Occupied:

       1Ap   -21.162751     2Ap    -2.590758     3Ap    -1.945215
       1App   -1.790437     4Ap    -1.789448     5Ap    -1.780871
       2App   -1.299142     6Ap    -1.214924     7Ap    -1.107461

  @RHF Final Energy:  -106.05362136252286

   => Energetics <=

    Nuclear Repulsion Energy =             30.7526681671513167
    One-Electron Energy =                -204.2505680348241697
    Two-Electron Energy =                  67.4442785051499953
    Total Energy =                       -106.0536213625228612

  Dipole Moment: [D]
     X:     0.1488      Y:     0.8118      Z:     0.0000     Total:     0.8253

      * MP2 total energy                      = -106.451986990810582
      * CCSD total energy                     = -106.464970304926126
      * CCSD(T) total energy                  = -106.475620176556589
*** Psi4 exiting successfully. Buy a developer a beer!
