                               Psi4 1.4a2.dev78

  ==> Input File <==

--------------------------------------------------------------------------
memory 50 GB
set basis def2-QZVPD
set soscf true
set fail_on_maxiter false
molecule{
	3 1
	La -0.038392 -0.277582 0.000000
	--
	0 1
	O 0.422431 3.065466 0.000000
	H 0.513742 3.655368 0.761699
	H 0.513742 3.655368 -0.761699
}

energy(cbs, corl_wfn='mp2',corl_basis='def2-[TQ]ZVPD', delta_wfn='ccsd(t)', delta_basis='def2-[DT]ZVPD')
--------------------------------------------------------------------------

    Molecular point group: cs
  Charge       = 3
  Multiplicity = 1
  Basis Set: DEF2-QZVPD
    Blend: DEF2-QZVPD
  Basis Set: (DEF2-QZVPD AUX)
    Blend: DEF2-QZVP-JKFIT
  @DF-RHF Final Energy:  -106.01083585223206
    Total Energy =                       -106.0108358522320628
  Basis Set: (DEF2-QZVPD AUX)
    Blend: DEF2-QZVPP-RI
	 Reference Energy          =    -106.0108358522320628 [Eh]
	 Singles Energy            =      -0.0000000000000000 [Eh]
	 Same-Spin Energy          =      -0.1108076173728769 [Eh]
	 Opposite-Spin Energy      =      -0.3590937055007328 [Eh]
	 Correlation Energy        =      -0.4699013228736098 [Eh]
	 Total Energy              =    -106.4807371751056735 [Eh]

	 ================> DF-SCS-MP2 Energies <==================
	-----------------------------------------------------------
	 SCS Same-Spin Scale       =       0.3333333333333333 [-]
	 SCS Opposite-Spin Scale   =       1.2000000000000000 [-]
	 SCS Same-Spin Energy      =      -0.0369358724576256 [Eh]
	 SCS Opposite-Spin Energy  =      -0.4309124466008794 [Eh]
	 SCS Correlation Energy    =      -0.4678483190585050 [Eh]
	 SCS Total Energy          =    -106.4786841712905670 [Eh]
	-----------------------------------------------------------

    Molecular point group: cs
  Multiplicity = 1
  Basis Set: DEF2-SVPD
    Blend: DEF2-SVPD
  @RHF Final Energy:  -105.91814903998288
    Total Energy =                       -105.9181490399828931
      * MP2 total energy                      = -106.213985910827958
      * CCSD total energy                     = -106.227800670801855
      * CCSD(T) total energy                  = -106.234556195158845
    Molecular point group: cs

    Geometry (in Angstrom), charge = 3, multiplicity = 1:

       Center              X                  Y                   Z               Mass
    ------------   -----------------  -----------------  -----------------  -----------------
         LA          -0.054065128344    -0.391284877788     0.000000000000   138.906356300000
         O            0.406757871656     2.951763122212     0.000000000000    15.994914619570
         H            0.498068871656     3.541665122212     0.761699000000     1.007825032230
         H            0.498068871656     3.541665122212    -0.761699000000     1.007825032230

  Charge       = 3
  Multiplicity = 1
  Basis Set: DEF2-TZVPD
    Blend: DEF2-TZVPD

    Orbital Energies [Eh]
    ---------------------

    Doubly Occupied:

       1Ap   -21.032532     2Ap    -2.625122     1App   -1.821695
       3Ap    -1.821389     4Ap    -1.818404     5Ap    -1.805710
       2App   -1.168874     6Ap    -1.064330     7Ap    -0.974011

  @RHF Final Energy:  -106.00469281214896

   => Energetics <=

    Nuclear Repulsion Energy =             25.7745848712091608
    One-Electron Energy =                -195.2944205732961223
    Two-Electron Energy =                  63.5151428899380051
    Total Energy =                       -106.0046928121489600

  Dipole Moment: [D]
     X:    -0.1822      Y:    -1.5660      Z:     0.0000     Total:     1.5766

      * MP2 total energy                      = -106.399680352359994
      * CCSD total energy                     = -106.413402093188424
      * CCSD(T) total energy                  = -106.423779917551400
*** Psi4 exiting successfully. Buy a developer a beer!
