                               Psi4 1.4a2.dev78

  ==> Input File <==

--------------------------------------------------------------------------
memory 50 GB
set basis def2-QZVPD
set soscf true
set fail_on_maxiter false
molecule{
	3 1
	La -0.038392 -0.277582 0.000000
	--
	0 1
	O 0.367810 2.669213 0.000000
	H 0.459121 3.259115 0.761699
	H 0.459121 3.259115 -0.761699
}

energy(cbs, corl_wfn='mp2',corl_basis='def2-[TQ]ZVPD', delta_wfn='ccsd(t)', delta_basis='def2-[DT]ZVPD')
--------------------------------------------------------------------------

    Molecular point group: cs
  Charge       = 3
  Multiplicity = 1
  Basis Set: DEF2-QZVPD
    Blend: DEF2-QZVPD
  Basis Set: (DEF2-QZVPD AUX)
    Blend: DEF2-QZVP-JKFIT
  @DF-RHF Final Energy:  -106.03554650500914
    Total Energy =                       -106.0355465050091368
  Basis Set: (DEF2-QZVPD AUX)
    Blend: DEF2-QZVPP-RI
	 Reference Energy          =    -106.0355465050091368 [Eh]
	 Singles Energy            =      -0.0000000000000000 [Eh]
	 Same-Spin Energy          =      -0.1116368534445179 [Eh]
	 Opposite-Spin Energy      =      -0.3599826871511906 [Eh]
	 Correlation Energy        =      -0.4716195405957084 [Eh]
	 Total Energy              =    -106.5071660456048477 [Eh]

	 ================> DF-SCS-MP2 Energies <==================
	-----------------------------------------------------------
	 SCS Same-Spin Scale       =       0.3333333333333333 [-]
	 SCS Opposite-Spin Scale   =       1.2000000000000000 [-]
	 SCS Same-Spin Energy      =      -0.0372122844815060 [Eh]
	 SCS Opposite-Spin Energy  =      -0.4319792245814287 [Eh]
	 SCS Correlation Energy    =      -0.4691915090629346 [Eh]
	 SCS Total Energy          =    -106.5047380140720747 [Eh]
	-----------------------------------------------------------

    Molecular point group: cs
  Multiplicity = 1
  Basis Set: DEF2-SVPD
    Blend: DEF2-SVPD
  @RHF Final Energy:  -105.94301293971107
    Total Energy =                       -105.9430129397110676
      * MP2 total energy                      = -106.241754258326040
      * CCSD total energy                     = -106.255419645270152
      * CCSD(T) total energy                  = -106.262333695356304
    Molecular point group: cs

    Geometry (in Angstrom), charge = 3, multiplicity = 1:

       Center              X                  Y                   Z               Mass
    ------------   -----------------  -----------------  -----------------  -----------------
         LA          -0.047795855105    -0.345803866289     0.000000000000   138.906356300000
         O            0.358406144895     2.600991133711     0.000000000000    15.994914619570
         H            0.449717144895     3.190893133711     0.761699000000     1.007825032230
         H            0.449717144895     3.190893133711    -0.761699000000     1.007825032230

  Charge       = 3
  Multiplicity = 1
  Basis Set: DEF2-TZVPD
    Blend: DEF2-TZVPD

    Orbital Energies [Eh]
    ---------------------

    Doubly Occupied:

       1Ap   -21.093135     2Ap    -2.610295     3Ap    -1.868446
       1App   -1.808152     4Ap    -1.807606     5Ap    -1.800469
       2App   -1.227716     6Ap    -1.132289     7Ap    -1.034160

  @RHF Final Energy:  -106.02906331354657

   => Energetics <=

    Nuclear Repulsion Energy =             27.9392270776276241
    One-Electron Energy =                -199.1720466887195755
    Two-Electron Energy =                  65.2037562975453682
    Total Energy =                       -106.0290633135465725

  Dipole Moment: [D]
     X:    -0.0219      Y:    -0.4118      Z:     0.0000     Total:     0.4123

      * MP2 total energy                      = -106.425666522480768
      * CCSD total energy                     = -106.439105025719513
      * CCSD(T) total energy                  = -106.449649093949887
*** Psi4 exiting successfully. Buy a developer a beer!
