                               Psi4 1.4a2.dev78

  ==> Input File <==

--------------------------------------------------------------------------
memory 50 GB
set basis def2-QZVPD
set soscf true
set fail_on_maxiter false
molecule{
	3 1
	La -0.038392 -0.277582 0.000000
	--
	0 1
	O 0.354154 2.570150 0.000000
	H 0.445465 3.160052 0.761699
	H 0.445465 3.160052 -0.761699
}

energy(cbs, corl_wfn='mp2',corl_basis='def2-[TQ]ZVPD', delta_wfn='ccsd(t)', delta_basis='def2-[DT]ZVPD')
--------------------------------------------------------------------------

    Molecular point group: cs
  Charge       = 3
  Multiplicity = 1
  Basis Set: DEF2-QZVPD
    Blend: DEF2-QZVPD
  Basis Set: (DEF2-QZVPD AUX)
    Blend: DEF2-QZVP-JKFIT
  @DF-RHF Final Energy:  -106.04232491634296
    Total Energy =                       -106.0423249163429631
  Basis Set: (DEF2-QZVPD AUX)
    Blend: DEF2-QZVPP-RI
	 Reference Energy          =    -106.0423249163429631 [Eh]
	 Singles Energy            =      -0.0000000000000000 [Eh]
	 Same-Spin Energy          =      -0.1119117155780564 [Eh]
	 Opposite-Spin Energy      =      -0.3602220949300758 [Eh]
	 Correlation Energy        =      -0.4721338105081321 [Eh]
	 Total Energy              =    -106.5144587268510890 [Eh]

	 ================> DF-SCS-MP2 Energies <==================
	-----------------------------------------------------------
	 SCS Same-Spin Scale       =       0.3333333333333333 [-]
	 SCS Opposite-Spin Scale   =       1.2000000000000000 [-]
	 SCS Same-Spin Energy      =      -0.0373039051926854 [Eh]
	 SCS Opposite-Spin Energy  =      -0.4322665139160909 [Eh]
	 SCS Correlation Energy    =      -0.4695704191087764 [Eh]
	 SCS Total Energy          =    -106.5118953354517402 [Eh]
	-----------------------------------------------------------

    Molecular point group: cs
  Multiplicity = 1
  Basis Set: DEF2-SVPD
    Blend: DEF2-SVPD
  @RHF Final Energy:  -105.94973092778136
    Total Energy =                       -105.9497309277813599
      * MP2 total energy                      = -106.249333165413873
      * CCSD total energy                     = -106.262945388528379
      * CCSD(T) total energy                  = -106.269891508722324
    Molecular point group: cs

    Geometry (in Angstrom), charge = 3, multiplicity = 1:

       Center              X                  Y                   Z               Mass
    ------------   -----------------  -----------------  -----------------  -----------------
         LA          -0.046228450711    -0.334433642108     0.000000000000   138.906356300000
         O            0.346317549289     2.513298357892     0.000000000000    15.994914619570
         H            0.437628549289     3.103200357892     0.761699000000     1.007825032230
         H            0.437628549289     3.103200357892    -0.761699000000     1.007825032230

  Charge       = 3
  Multiplicity = 1
  Basis Set: DEF2-TZVPD
    Blend: DEF2-TZVPD

    Orbital Energies [Eh]
    ---------------------

    Doubly Occupied:

       1Ap   -21.109685     2Ap    -2.605874     3Ap    -1.885761
       1App   -1.804141     4Ap    -1.803507     5Ap    -1.795881
       2App   -1.244207     6Ap    -1.151639     7Ap    -1.051036

  @RHF Final Energy:  -106.03567733178991

   => Energetics <=

    Nuclear Repulsion Energy =             28.5714736827524831
    One-Electron Energy =                -200.3108387882743386
    Two-Electron Energy =                  65.7036877737319571
    Total Energy =                       -106.0356773317899126

  Dipole Moment: [D]
     X:     0.0195      Y:    -0.1147      Z:     0.0000     Total:     0.1164

      * MP2 total energy                      = -106.432688483323062
      * CCSD total energy                     = -106.446040723526650
      * CCSD(T) total energy                  = -106.456614413928392
*** Psi4 exiting successfully. Buy a developer a beer!
