                               Psi4 1.4a2.dev78

  ==> Input File <==

--------------------------------------------------------------------------
memory 50 GB
set basis def2-QZVPD
set soscf true
set fail_on_maxiter false
molecule{
	3 1
	La -0.038392 -0.277582 0.000000
	--
	0 1
	O 0.340499 2.471086 0.000000
	H 0.431810 3.060989 0.761699
	H 0.431810 3.060989 -0.761699
}

energy(cbs, corl_wfn='mp2',corl_basis='def2-[TQ]ZVPD', delta_wfn='ccsd(t)', delta_basis='def2-[DT]ZVPD')
--------------------------------------------------------------------------

    Molecular point group: cs
  Charge       = 3
  Multiplicity = 1
  Basis Set: DEF2-QZVPD
    Blend: DEF2-QZVPD
  Basis Set: (DEF2-QZVPD AUX)
    Blend: DEF2-QZVP-JKFIT
  @DF-RHF Final Energy:  -106.04905279885963
    Total Energy =                       -106.0490527988596341
  Basis Set: (DEF2-QZVPD AUX)
    Blend: DEF2-QZVPP-RI
	 Reference Energy          =    -106.0490527988596341 [Eh]
	 Singles Energy            =      -0.0000000000000000 [Eh]
	 Same-Spin Energy          =      -0.1122252759384411 [Eh]
	 Opposite-Spin Energy      =      -0.3604698858241221 [Eh]
	 Correlation Energy        =      -0.4726951617625632 [Eh]
	 Total Energy              =    -106.5217479606221929 [Eh]

	 ================> DF-SCS-MP2 Energies <==================
	-----------------------------------------------------------
	 SCS Same-Spin Scale       =       0.3333333333333333 [-]
	 SCS Opposite-Spin Scale   =       1.2000000000000000 [-]
	 SCS Same-Spin Energy      =      -0.0374084253128137 [Eh]
	 SCS Opposite-Spin Energy  =      -0.4325638629889466 [Eh]
	 SCS Correlation Energy    =      -0.4699722883017602 [Eh]
	 SCS Total Energy          =    -106.5190250871613955 [Eh]
	-----------------------------------------------------------

    Molecular point group: cs
  Multiplicity = 1
  Basis Set: DEF2-SVPD
    Blend: DEF2-SVPD
  @RHF Final Energy:  -105.95632002058669
    Total Energy =                       -105.9563200205866877
      * MP2 total energy                      = -106.256842840930318
      * CCSD total energy                     = -106.270385345916949
      * CCSD(T) total energy                  = -106.277361120427244
    Molecular point group: cs

    Geometry (in Angstrom), charge = 3, multiplicity = 1:

       Center              X                  Y                   Z               Mass
    ------------   -----------------  -----------------  -----------------  -----------------
         LA          -0.044661161096    -0.323063315995     0.000000000000   138.906356300000
         O            0.334229838904     2.425604684005     0.000000000000    15.994914619570
         H            0.425540838904     3.015507684005     0.761699000000     1.007825032230
         H            0.425540838904     3.015507684005    -0.761699000000     1.007825032230

  Charge       = 3
  Multiplicity = 1
  Basis Set: DEF2-TZVPD
    Blend: DEF2-TZVPD

    Orbital Energies [Eh]
    ---------------------

    Doubly Occupied:

       1Ap   -21.126794     2Ap    -2.601146     3Ap    -1.904203
       1App   -1.799859     4Ap    -1.799124     5Ap    -1.791042
       2App   -1.261536     6Ap    -1.171923     7Ap    -1.068793

  @RHF Final Energy:  -106.04219543893058

   => Energetics <=

    Nuclear Repulsion Energy =             29.2478055206903313
    One-Electron Energy =                -201.5311618627513610
    Two-Electron Energy =                  66.2411609031304636
    Total Energy =                       -106.0421954389305768

  Dipole Moment: [D]
     X:     0.0616      Y:     0.1871      Z:     0.0000     Total:     0.1970

      * MP2 total energy                      = -106.439625768891446
      * CCSD total energy                     = -106.452877387131224
      * CCSD(T) total energy                  = -106.463477388489594
*** Psi4 exiting successfully. Buy a developer a beer!
