                               Psi4 1.4a2.dev78

  ==> Input File <==

--------------------------------------------------------------------------
memory 50 GB
set basis def2-QZVPD
set soscf true
set fail_on_maxiter false
molecule{
	3 1
	La -0.038392 -0.277582 0.000000
	--
	0 1
	O 0.299533 2.173897 0.000000
	H 0.390844 2.763799 0.761699
	H 0.390844 2.763799 -0.761699
}

energy(cbs, corl_wfn='mp2',corl_basis='def2-[TQ]ZVPD', delta_wfn='ccsd(t)', delta_basis='def2-[DT]ZVPD')
--------------------------------------------------------------------------

    Molecular point group: cs
  Charge       = 3
  Multiplicity = 1
  Basis Set: DEF2-QZVPD
    Blend: DEF2-QZVPD
  Basis Set: (DEF2-QZVPD AUX)
    Blend: DEF2-QZVP-JKFIT
  @DF-RHF Final Energy:  -106.06537400242189
    Total Energy =                       -106.0653740024218905
  Basis Set: (DEF2-QZVPD AUX)
    Blend: DEF2-QZVPP-RI
	 Reference Energy          =    -106.0653740024218905 [Eh]
	 Singles Energy            =      -0.0000000000000000 [Eh]
	 Same-Spin Energy          =      -0.1134980853904674 [Eh]
	 Opposite-Spin Energy      =      -0.3613389754040827 [Eh]
	 Correlation Energy        =      -0.4748370607945501 [Eh]
	 Total Energy              =    -106.5402110632164465 [Eh]

	 ================> DF-SCS-MP2 Energies <==================
	-----------------------------------------------------------
	 SCS Same-Spin Scale       =       0.3333333333333333 [-]
	 SCS Opposite-Spin Scale   =       1.2000000000000000 [-]
	 SCS Same-Spin Energy      =      -0.0378326951301558 [Eh]
	 SCS Opposite-Spin Energy  =      -0.4336067704848993 [Eh]
	 SCS Correlation Energy    =      -0.4714394656150551 [Eh]
	 SCS Total Energy          =    -106.5368134680369394 [Eh]
	-----------------------------------------------------------

    Molecular point group: cs
  Multiplicity = 1
  Basis Set: DEF2-SVPD
    Blend: DEF2-SVPD
  @RHF Final Energy:  -105.97124371090899
    Total Energy =                       -105.9712437109089933
      * MP2 total energy                      = -106.275001979315334
      * CCSD total energy                     = -106.288152673806906
      * CCSD(T) total energy                  = -106.295212665967512
    Molecular point group: cs

    Geometry (in Angstrom), charge = 3, multiplicity = 1:

       Center              X                  Y                   Z               Mass
    ------------   -----------------  -----------------  -----------------  -----------------
         LA          -0.039959177472    -0.288952630609     0.000000000000   138.906356300000
         O            0.297965822528     2.162526369391     0.000000000000    15.994914619570
         H            0.389276822528     2.752428369391     0.761699000000     1.007825032230
         H            0.389276822528     2.752428369391    -0.761699000000     1.007825032230

  Charge       = 3
  Multiplicity = 1
  Basis Set: DEF2-TZVPD
    Blend: DEF2-TZVPD

    Orbital Energies [Eh]
    ---------------------

    Doubly Occupied:

       1Ap   -21.181676     2Ap    -2.585121     3Ap    -1.968322
       1App   -1.785282     4Ap    -1.784138     5Ap    -1.775767
       2App   -1.319723     6Ap    -1.237221     7Ap    -1.128737

  @RHF Final Energy:  -106.05747236046994

   => Energetics <=

    Nuclear Repulsion Energy =             31.5931218838180250
    One-Electron Energy =                -205.7692162191215743
    Two-Electron Energy =                  68.1186219748336157
    Total Energy =                       -106.0574723604699443

  Dipole Moment: [D]
     X:     0.1947      Y:     1.1402      Z:     0.0000     Total:     1.1567

      * MP2 total energy                      = -106.456402005744508
      * CCSD total energy                     = -106.469203393613469
      * CCSD(T) total energy                  = -106.479880806572581
*** Psi4 exiting successfully. Buy a developer a beer!
