                               Psi4 1.4a2.dev78

  ==> Input File <==

--------------------------------------------------------------------------
memory 50 GB
set basis def2-QZVPD
set soscf true
set fail_on_maxiter false
molecule{
	3 1
	La -0.038392 -0.277582 0.000000
	--
	0 1
	O 0.258567 1.876707 0.000000
	H 0.349878 2.466609 0.761699
	H 0.349878 2.466609 -0.761699
}

energy(cbs, corl_wfn='mp2',corl_basis='def2-[TQ]ZVPD', delta_wfn='ccsd(t)', delta_basis='def2-[DT]ZVPD')
--------------------------------------------------------------------------

    Molecular point group: cs
  Charge       = 3
  Multiplicity = 1
  Basis Set: DEF2-QZVPD
    Blend: DEF2-QZVPD
  Basis Set: (DEF2-QZVPD AUX)
    Blend: DEF2-QZVP-JKFIT
  @DF-RHF Final Energy:  -106.05977455444007
    Total Energy =                       -106.0597745544400681
  Basis Set: (DEF2-QZVPD AUX)
    Blend: DEF2-QZVPP-RI
	 Reference Energy          =    -106.0597745544400681 [Eh]
	 Singles Energy            =      -0.0000000000000000 [Eh]
	 Same-Spin Energy          =      -0.1156450397422812 [Eh]
	 Opposite-Spin Energy      =      -0.3629662142750598 [Eh]
	 Correlation Energy        =      -0.4786112540173410 [Eh]
	 Total Energy              =    -106.5383858084574058 [Eh]

	 ================> DF-SCS-MP2 Energies <==================
	-----------------------------------------------------------
	 SCS Same-Spin Scale       =       0.3333333333333333 [-]
	 SCS Opposite-Spin Scale   =       1.2000000000000000 [-]
	 SCS Same-Spin Energy      =      -0.0385483465807604 [Eh]
	 SCS Opposite-Spin Energy  =      -0.4355594571300718 [Eh]
	 SCS Correlation Energy    =      -0.4741078037108322 [Eh]
	 SCS Total Energy          =    -106.5338823581509047 [Eh]
	-----------------------------------------------------------

    Molecular point group: cs
  Multiplicity = 1
  Basis Set: DEF2-SVPD
    Blend: DEF2-SVPD
  @RHF Final Energy:  -105.96008231988010
    Total Energy =                       -105.9600823198801010
      * MP2 total energy                      = -106.268197101462889
      * CCSD total energy                     = -106.280446419500223
      * CCSD(T) total energy                  = -106.287609554739092
    Molecular point group: cs

    Geometry (in Angstrom), charge = 3, multiplicity = 1:

       Center              X                  Y                   Z               Mass
    ------------   -----------------  -----------------  -----------------  -----------------
         LA          -0.035257193847    -0.254841843290     0.000000000000   138.906356300000
         O            0.261701806153     1.899447156710     0.000000000000    15.994914619570
         H            0.353012806153     2.489349156710     0.761699000000     1.007825032230
         H            0.353012806153     2.489349156710    -0.761699000000     1.007825032230

  Charge       = 3
  Multiplicity = 1
  Basis Set: DEF2-TZVPD
    Blend: DEF2-TZVPD

    Orbital Energies [Eh]
    ---------------------

    Doubly Occupied:

       1Ap   -21.243424     2Ap    -2.567553     3Ap    -2.052877
       1App   -1.768334     4Ap    -1.766556     5Ap    -1.763963
       2App   -1.391345     6Ap    -1.300857     7Ap    -1.203750

  @RHF Final Energy:  -106.04950260705991

   => Energetics <=

    Nuclear Repulsion Energy =             34.5606068016456547
    One-Electron Energy =                -211.1029019648076996
    Two-Electron Energy =                  70.4927925561021311
    Total Energy =                       -106.0495026070599067

  Dipole Moment: [D]
     X:     0.3490      Y:     2.2434      Z:     0.0000     Total:     2.2704

      * MP2 total energy                      = -106.450881097373937
      * CCSD total energy                     = -106.462854346318011
      * CCSD(T) total energy                  = -106.473638906555308
*** Psi4 exiting successfully. Buy a developer a beer!
