                               Psi4 1.4a2.dev78

  ==> Input File <==

--------------------------------------------------------------------------
memory 50 GB
set basis def2-QZVPD
set soscf true
set fail_on_maxiter false
molecule{
	3 1
	La -0.038392 -0.277582 0.000000
	--
	0 1
	O 0.176634 1.282327 0.000000
	H 0.267945 1.872229 0.761699
	H 0.267945 1.872229 -0.761699
}

energy(cbs, corl_wfn='mp2',corl_basis='def2-[TQ]ZVPD', delta_wfn='ccsd(t)', delta_basis='def2-[DT]ZVPD')
--------------------------------------------------------------------------

    Molecular point group: cs
  Charge       = 3
  Multiplicity = 1
  Basis Set: DEF2-QZVPD
    Blend: DEF2-QZVPD
  Basis Set: (DEF2-QZVPD AUX)
    Blend: DEF2-QZVP-JKFIT
  @DF-RHF Final Energy:  -105.70598293643144
    Total Energy =                       -105.7059829364314396
  Basis Set: (DEF2-QZVPD AUX)
    Blend: DEF2-QZVPP-RI
	 Reference Energy          =    -105.7059829364314396 [Eh]
	 Singles Energy            =      -0.0000000000000000 [Eh]
	 Same-Spin Energy          =      -0.1229292778081101 [Eh]
	 Opposite-Spin Energy      =      -0.3701362248255368 [Eh]
	 Correlation Energy        =      -0.4930655026336469 [Eh]
	 Total Energy              =    -106.1990484390650806 [Eh]

	 ================> DF-SCS-MP2 Energies <==================
	-----------------------------------------------------------
	 SCS Same-Spin Scale       =       0.3333333333333333 [-]
	 SCS Opposite-Spin Scale   =       1.2000000000000000 [-]
	 SCS Same-Spin Energy      =      -0.0409764259360367 [Eh]
	 SCS Opposite-Spin Energy  =      -0.4441634697906442 [Eh]
	 SCS Correlation Energy    =      -0.4851398957266809 [Eh]
	 SCS Total Energy          =    -106.1911228321581149 [Eh]
	-----------------------------------------------------------

    Molecular point group: cs
  Multiplicity = 1
  Basis Set: DEF2-SVPD
    Blend: DEF2-SVPD
  @RHF Final Energy:  -105.54920102783689
    Total Energy =                       -105.5492010278368866
      * MP2 total energy                      = -105.867531012300219
      * CCSD total energy                     = -105.876269070470485
      * CCSD(T) total energy                  = -105.883505175316643
    Molecular point group: cs

    Geometry (in Angstrom), charge = 3, multiplicity = 1:

       Center              X                  Y                   Z               Mass
    ------------   -----------------  -----------------  -----------------  -----------------
         LA          -0.025853111821    -0.186620268652     0.000000000000   138.906356300000
         O            0.189172888179     1.373288731348     0.000000000000    15.994914619570
         H            0.280483888179     1.963190731348     0.761699000000     1.007825032230
         H            0.280483888179     1.963190731348    -0.761699000000     1.007825032230

  Charge       = 3
  Multiplicity = 1
  Basis Set: DEF2-TZVPD
    Blend: DEF2-TZVPD

    Orbital Energies [Eh]
    ---------------------

    Doubly Occupied:

       1Ap   -21.426017     2Ap    -2.652478     3Ap    -2.281112
       4Ap    -1.847501     1App   -1.788687     5Ap    -1.765384
       2App   -1.584210     6Ap    -1.435481     7Ap    -1.281767

  @RHF Final Energy:  -105.67708159869339

   => Energetics <=

    Nuclear Repulsion Energy =             43.7285938749017049
    One-Electron Energy =                -226.6860763209377012
    Two-Electron Energy =                  77.2804008473426194
    Total Energy =                       -105.6770815986933911

  Dipole Moment: [D]
     X:     0.8222      Y:     5.6340      Z:     0.0000     Total:     5.6936

      * MP2 total energy                      = -106.086315471217105
      * CCSD total energy                     = -106.096531439760653
      * CCSD(T) total energy                  = -106.107313891059562
*** Psi4 exiting successfully. Buy a developer a beer!
