                               Psi4 1.4a2.dev78

  ==> Input File <==

--------------------------------------------------------------------------
memory 50 GB
set basis def2-QZVPD
set soscf true
set fail_on_maxiter false
molecule{
	3 1
	La -0.038392 -0.277582 0.000000
	--
	0 1
	O 0.285877 2.074833 0.000000
	H 0.377188 2.664736 0.761699
	H 0.377188 2.664736 -0.761699
}

energy(cbs, corl_wfn='mp2',corl_basis='def2-[TQ]ZVPD', delta_wfn='ccsd(t)', delta_basis='def2-[DT]ZVPD')
--------------------------------------------------------------------------

    Molecular point group: cs
  Charge       = 3
  Multiplicity = 1
  Basis Set: DEF2-QZVPD
    Blend: DEF2-QZVPD
  Basis Set: (DEF2-QZVPD AUX)
    Blend: DEF2-QZVP-JKFIT
  @DF-RHF Final Energy:  -106.06746300769723
    Total Energy =                       -106.0674630076972278
  Basis Set: (DEF2-QZVPD AUX)
    Blend: DEF2-QZVPP-RI
	 Reference Energy          =    -106.0674630076972278 [Eh]
	 Singles Energy            =      -0.0000000000000000 [Eh]
	 Same-Spin Energy          =      -0.1140855234521830 [Eh]
	 Opposite-Spin Energy      =      -0.3617410436066997 [Eh]
	 Correlation Energy        =      -0.4758265670588827 [Eh]
	 Total Energy              =    -106.5432895747561162 [Eh]

	 ================> DF-SCS-MP2 Energies <==================
	-----------------------------------------------------------
	 SCS Same-Spin Scale       =       0.3333333333333333 [-]
	 SCS Opposite-Spin Scale   =       1.2000000000000000 [-]
	 SCS Same-Spin Energy      =      -0.0380285078173943 [Eh]
	 SCS Opposite-Spin Energy  =      -0.4340892523280396 [Eh]
	 SCS Correlation Energy    =      -0.4721177601454339 [Eh]
	 SCS Total Energy          =    -106.5395807678426650 [Eh]
	-----------------------------------------------------------

    Molecular point group: cs
  Multiplicity = 1
  Basis Set: DEF2-SVPD
    Blend: DEF2-SVPD
  @RHF Final Energy:  -105.97220529288320
    Total Energy =                       -105.9722052928832028
      * MP2 total energy                      = -106.277259934482828
      * CCSD total energy                     = -106.290184112488888
      * CCSD(T) total energy                  = -106.297274741108936
    Molecular point group: cs

    Geometry (in Angstrom), charge = 3, multiplicity = 1:

       Center              X                  Y                   Z               Mass
    ------------   -----------------  -----------------  -----------------  -----------------
         LA          -0.038391773078    -0.277582304496     0.000000000000   138.906356300000
         O            0.285877226922     2.074832695504     0.000000000000    15.994914619570
         H            0.377188226922     2.664735695504     0.761699000000     1.007825032230
         H            0.377188226922     2.664735695504    -0.761699000000     1.007825032230

  Charge       = 3
  Multiplicity = 1
  Basis Set: DEF2-TZVPD
    Blend: DEF2-TZVPD

    Orbital Energies [Eh]
    ---------------------

    Doubly Occupied:

       1Ap   -21.201331     2Ap    -2.579258     3Ap    -1.993649
       1App   -1.779840     4Ap    -1.778519     5Ap    -1.770938
       2App   -1.341763     6Ap    -1.259511     7Ap    -1.151642

  @RHF Final Energy:  -106.05898743647610

   => Energetics <=

    Nuclear Repulsion Energy =             32.5018498684056780
    One-Electron Energy =                -207.4087724995444546
    Two-Electron Energy =                  68.8479351946626679
    Total Energy =                       -106.0589874364761016

  Dipole Moment: [D]
     X:     0.2428      Y:     1.4845      Z:     0.0000     Total:     1.5042

      * MP2 total energy                      = -106.458585650647890
      * CCSD total energy                     = -106.471162764125026
      * CCSD(T) total energy                  = -106.481871590384088
*** Psi4 exiting successfully. Buy a developer a beer!
