                               Psi4 1.4a2.dev78

  ==> Input File <==

--------------------------------------------------------------------------
memory 50 GB
set basis def2-QZVPD
set soscf true
set fail_on_maxiter false
molecule{
	3 1
	La -0.038392 -0.277582 0.000000
	--
	0 1
	O 0.149323 1.084201 0.000000
	H 0.240635 1.674103 0.761699
	H 0.240635 1.674103 -0.761699
}

energy(cbs, corl_wfn='mp2',corl_basis='def2-[TQ]ZVPD', delta_wfn='ccsd(t)', delta_basis='def2-[DT]ZVPD')
--------------------------------------------------------------------------

    Molecular point group: cs
  Charge       = 3
  Multiplicity = 1
  Basis Set: DEF2-QZVPD
    Blend: DEF2-QZVPD
  Basis Set: (DEF2-QZVPD AUX)
    Blend: DEF2-QZVP-JKFIT
  @DF-RHF Final Energy:  -105.26472087677419
    Total Energy =                       -105.2647208767741915
  Basis Set: (DEF2-QZVPD AUX)
    Blend: DEF2-QZVPP-RI
	 Reference Energy          =    -105.2647208767741915 [Eh]
	 Singles Energy            =      -0.0000000000000000 [Eh]
	 Same-Spin Energy          =      -0.1249595697156651 [Eh]
	 Opposite-Spin Energy      =      -0.3722536181864048 [Eh]
	 Correlation Energy        =      -0.4972131879020699 [Eh]
	 Total Energy              =    -105.7619340646762680 [Eh]

	 ================> DF-SCS-MP2 Energies <==================
	-----------------------------------------------------------
	 SCS Same-Spin Scale       =       0.3333333333333333 [-]
	 SCS Opposite-Spin Scale   =       1.2000000000000000 [-]
	 SCS Same-Spin Energy      =      -0.0416531899052217 [Eh]
	 SCS Opposite-Spin Energy  =      -0.4467043418236857 [Eh]
	 SCS Correlation Energy    =      -0.4883575317289074 [Eh]
	 SCS Total Energy          =    -105.7530784085031001 [Eh]
	-----------------------------------------------------------

    Molecular point group: cs
  Multiplicity = 1
  Basis Set: DEF2-SVPD
    Blend: DEF2-SVPD
  @RHF Final Energy:  -105.06935642554893
    Total Energy =                       -105.0693564255489321
      * MP2 total energy                      = -105.385711470946489
      * CCSD total energy                     = -105.395101899625175
      * CCSD(T) total energy                  = -105.402034527016369
    Molecular point group: cs

    Geometry (in Angstrom), charge = 3, multiplicity = 1:

       Center              X                  Y                   Z               Mass
    ------------   -----------------  -----------------  -----------------  -----------------
         LA          -0.022718430657    -0.163879820291     0.000000000000   138.906356300000
         O            0.164996569343     1.197903179709     0.000000000000    15.994914619570
         H            0.256308569343     1.787805179709     0.761699000000     1.007825032230
         H            0.256308569343     1.787805179709    -0.761699000000     1.007825032230

  Charge       = 3
  Multiplicity = 1
  Basis Set: DEF2-TZVPD
    Blend: DEF2-TZVPD

    Orbital Energies [Eh]
    ---------------------

    Doubly Occupied:

       1Ap   -21.527608     2Ap    -2.852286     3Ap    -2.301209
       4Ap    -1.932436     1App   -1.910657     5Ap    -1.852087
       2App   -1.607692     6Ap    -1.505522     7Ap    -1.211385

  @RHF Final Energy:  -105.22392342872415

   => Energetics <=

    Nuclear Repulsion Energy =             48.4804349785048458
    One-Electron Energy =                -234.0069511622667733
    Two-Electron Energy =                  80.3025927550377929
    Total Energy =                       -105.2239234287241487

  Dipole Moment: [D]
     X:     1.0100      Y:     6.9896      Z:     0.0000     Total:     7.0622

      * MP2 total energy                      = -105.634336246601990
      * CCSD total energy                     = -105.645851205963069
      * CCSD(T) total energy                  = -105.656376549136866
*** Psi4 exiting successfully. Buy a developer a beer!
